 Gaussian 16, Revision B.01,
 Gaussian 16:  ES64L-G16RevB.01 20-Dec-2017

 ----------------------------------------------------------------------
 # wB97XD/6-311+G(d,p) td=(Nstates=10) scrf=(iefpcm,solvent=water) form
 check 5-td
 ----------------------------------------------------------------------

 ----
 5-td
 ----
 Symbolic Z-matrix:
 Charge =  0 Multiplicity = 1

                         Standard orientation:
 ---------------------------------------------------------------------
 Center     Atomic      Atomic             Coordinates (Angstroms)
 Number     Number       Type             X           Y           Z
 ---------------------------------------------------------------------
      1          7           0        0.187641   -0.668790    0.000010
      2          7           0        0.912961    0.362639   -0.000000
      3          6           0        2.272401    0.127579    0.000010
      4          6           0        3.137321    1.213279   -0.000000
      5         16           0        4.767081    0.663928    0.000010
      6          6           0        4.297360   -1.024812    0.000030
      7          6           0        2.944220   -1.144411    0.000020
      8          1           0        2.423730   -2.094151    0.000030
      9          6           0        5.333570   -2.096292    0.000040
     10          1           0        5.977290   -2.033692   -0.883450
     11          1           0        4.846630   -3.074272    0.000040
     12          1           0        5.977280   -2.033682    0.883530
     13          6           0        2.792382    2.660159   -0.000010
     14          1           0        3.197872    3.164399   -0.883180
     15          1           0        1.706992    2.773029   -0.000020
     16          1           0        3.197872    3.164419    0.883140
     17          6           0       -1.195369   -0.397650   -0.000000
     18          6           0       -1.752999    0.892250   -0.000020
     19          6           0       -3.127079    1.048961   -0.000020
     20          6           0       -3.937409   -0.088329   -0.000010
     21          6           0       -3.408090   -1.376059   -0.000000
     22          6           0       -2.029470   -1.523000    0.000010
     23          1           0       -1.577480   -2.509480    0.000020
     24          1           0       -4.067360   -2.235459    0.000010
     25          7           0       -5.380059    0.078092   -0.000020
     26          8           0       -5.831149    1.217952   -0.000030
     27          8           0       -6.079180   -0.928798   -0.000020
     28          1           0       -3.579899    2.033241   -0.000030
     29          1           0       -1.098419    1.755930   -0.000020
 ---------------------------------------------------------------------

 SCF Done:  E(RwB97XD) =  -1176.60577039     A.U. after   19 cycles

 Excitation energies and oscillator strengths:

 Excited State   1:      Singlet-A      2.7901 eV  444.38 nm  f=0.0000  <S**2>=0.000
      66 -> 69         0.58562
      66 -> 70        -0.37562
 This state for optimization and/or second-order correction.
 Total Energy, E(CIS/TDA) =  -1176.50323792
 Copying the excited state density for this state as the 1-particle RhoCI density.

 Excited State   2:      Singlet-A      3.5580 eV  348.47 nm  f=1.2753  <S**2>=0.000
      64 -> 69         0.10473
      67 -> 69        -0.11771
      68 -> 69         0.64507
      68 -> 70        -0.18721

 Excited State   3:      Singlet-A      3.9260 eV  315.80 nm  f=0.0000  <S**2>=0.000
      63 -> 69         0.56909
      63 -> 70         0.39764
      63 -> 77        -0.10079

 Excited State   4:      Singlet-A      4.1569 eV  298.26 nm  f=0.1549  <S**2>=0.000
      67 -> 69         0.60060
      67 -> 70        -0.31197
      68 -> 70        -0.11164

 Excited State   5:      Singlet-A      4.4120 eV  281.01 nm  f=0.0342  <S**2>=0.000
      64 -> 71         0.14984
      65 -> 69         0.65013
      68 -> 71         0.15846

 Excited State   6:      Singlet-A      4.5469 eV  272.68 nm  f=0.0003  <S**2>=0.000
      61 -> 69         0.56761
      61 -> 70         0.38825

 Excited State   7:      Singlet-A      4.9481 eV  250.57 nm  f=0.0169  <S**2>=0.000
      64 -> 69         0.32455
      64 -> 70         0.13786
      67 -> 70        -0.23189
      68 -> 70         0.52006

 Excited State   8:      Singlet-A      5.2542 eV  235.97 nm  f=0.0002  <S**2>=0.000
      66 -> 69         0.35974
      66 -> 70         0.52954
      66 -> 77         0.23372

 Excited State   9:      Singlet-A      5.4190 eV  228.80 nm  f=0.0363  <S**2>=0.000
      64 -> 69         0.53442
      64 -> 70        -0.19389
      68 -> 69        -0.16655
      68 -> 70        -0.28134
      68 -> 71         0.12639

 Excited State  10:      Singlet-A      5.6931 eV  217.78 nm  f=0.2095  <S**2>=0.000
      64 -> 69         0.11154
      64 -> 72        -0.12092
      65 -> 70         0.16431
      68 -> 70        -0.10283
      68 -> 71        -0.32251
      68 -> 72         0.53552

 The electronic state is 1-A.
 Alpha  occ. eigenvalues --  -89.05454 -19.30028 -19.30019 -14.69660 -14.50199
 Alpha  occ. eigenvalues --  -14.49144 -10.36338 -10.34880 -10.34550 -10.33406
 Alpha  occ. eigenvalues --  -10.32845 -10.32574 -10.32551 -10.31618 -10.31535
 Alpha  occ. eigenvalues --  -10.29623 -10.29375 -10.29215  -8.09569  -6.04388
 Alpha  occ. eigenvalues --   -6.04006  -6.03686  -1.36014  -1.18028  -1.15872
 Alpha  occ. eigenvalues --   -1.01446  -1.00220  -0.94488  -0.90137  -0.88355
 Alpha  occ. eigenvalues --   -0.87962  -0.83315  -0.82248  -0.78433  -0.74549
 Alpha  occ. eigenvalues --   -0.73285  -0.69295  -0.67314  -0.65633  -0.65110
 Alpha  occ. eigenvalues --   -0.64052  -0.62601  -0.60966  -0.58251  -0.55925
 Alpha  occ. eigenvalues --   -0.55090  -0.55044  -0.54065  -0.52531  -0.52430
 Alpha  occ. eigenvalues --   -0.51723  -0.51344  -0.49825  -0.49189  -0.48318
 Alpha  occ. eigenvalues --   -0.46835  -0.45549  -0.44766  -0.44419  -0.43112
 Alpha  occ. eigenvalues --   -0.42251  -0.41858  -0.40229  -0.37605  -0.36342
 Alpha  occ. eigenvalues --   -0.33619  -0.33176  -0.30253
 Alpha virt. eigenvalues --   -0.06101  -0.01178   0.03013   0.04510   0.05775
 Alpha virt. eigenvalues --    0.06759   0.06894   0.07515   0.07806   0.08556
 Alpha virt. eigenvalues --    0.08788   0.09047   0.09344   0.10100   0.10369

 Mulliken charges:
               1
     1  N    0.034680
     2  N    0.039757
     3  C   -1.822706
     4  C    1.561633
     5  S   -0.441272
     6  C   -0.071375
     7  C   -0.068257
     8  H    0.191185
     9  C   -0.233679
    10  H    0.191680
    11  H    0.184366
    12  H    0.191681
    13  C   -0.195881
    14  H    0.198097
    15  H    0.199697
    16  H    0.198099
    17  C   -0.328708
    18  C    0.251674
    19  C   -0.385669
    20  C    0.185242
    21  C   -0.204357
    22  C   -0.189249
    23  H    0.192994
    24  H    0.203339
    25  N   -0.171365
    26  O   -0.061137
    27  O   -0.056079
    28  H    0.203098
    29  H    0.202511
 Sum of Mulliken charges =  -0.00000

 Dipole moment (field-independent basis, Debye):
    X=              8.5761    Y=             -0.0970    Z=              0.0000  Tot=              8.5767
 Quadrupole moment (field-independent basis, Debye-Ang):
   XX=           -141.5576   YY=            -97.8485   ZZ=           -113.4793
   XY=              0.7824   XZ=             -0.0002   YZ=             -0.0001

 Normal termination of Gaussian 16 at Mon Aug 23 10:45:05 2021.
